project open {D:/Facultate UPT/AC Opritoiu/T1P1-Mi12/testt}
# Loading project testt
do run_ex4.txt
# ex4.v
# spi_rx_tb
# Model Technology ModelSim - Intel FPGA Edition vlog 10.5b Compiler 2016.10 Oct  5 2016
# Start time: 00:46:01 on Nov 06,2023
# vlog -reportprogress 300 ex4.v 
# -- Compiling module spi_rx
# -- Compiling module spi_rx_tb
# 
# Top level modules:
# 	spi_rx_tb
# End time: 00:46:01 on Nov 06,2023, Elapsed time: 0:00:00
# Errors: 0, Warnings: 0
# vsim -voptargs="+acc" spi_rx_tb 
# Start time: 00:46:01 on Nov 06,2023
# Loading work.spi_rx_tb
# Loading work.spi_rx
# Time	clk	flush	bit		actual_byte	expected_byte	Passed(1)/Failed(0)
#    0	000	0000x	00x		00000000000	000000000	                 1
#    1	001	00000	001		00000000000	000000000	                 1
#    2	000	00000	001		00000000000	000000000	                 1
#    3	001	00000	001		00000000000	000000000	                 1
#    4	000	00000	001		00000000000	000000000	                 1
#    5	001	00000	000		00000000000	000000000	                 1
#    6	000	00000	000		00000000000	000000000	                 1
#    7	001	00000	000		00000000000	000000000	                 1
#    8	000	00000	000		00000000000	000000000	                 1
#    9	001	00000	001		00000000000	000000000	                 1
#   10	000	00000	001		00000000000	000000000	                 1
#   11	001	00000	000		00000000000	000000000	                 1
#   12	000	00000	000		00000000000	000000000	                 1
#   13	001	00000	001		00000000000	000000000	                 1
#   14	000	00000	001		00000000000	000000000	                 1
#   15	001	00000	000		00001010011	001010011	                 1
#   16	000	00000	000		00001010011	001010011	                 1
#   17	001	00000	000		00001010011	001010011	                 1
#   18	000	00000	000		00001010011	001010011	                 1
#   19	001	00000	000		00001010011	001010011	                 1
#   20	000	00000	000		00001010011	001010011	                 1
#   21	001	00000	001		00001010011	001010011	                 1
#   22	000	00000	001		00001010011	001010011	                 1
#   23	001	00000	001		00001010011	001010011	                 1
#   24	000	00000	001		00001010011	001010011	                 1
#   25	001	00000	001		00001010011	001010011	                 1
#   26	000	00000	001		00001010011	001010011	                 1
#   27	001	00000	001		00001010011	001010011	                 1
#   28	000	00000	001		00001010011	001010011	                 1
#   29	001	00000	001		00001010011	001010011	                 1
#   30	000	00000	001		00001010011	001010011	                 1
#   31	001	00000	001		00011111100	011111100	                 1
#   32	000	00000	001		00011111100	011111100	                 1
#   33	001	00000	001		00011111100	011111100	                 1
#   34	000	00000	001		00011111100	011111100	                 1
#   35	001	00000	001		00011111100	011111100	                 1
#   36	000	00000	001		00011111100	011111100	                 1
#   37	001	00000	001		00011111100	011111100	                 1
#   38	000	00000	001		00011111100	011111100	                 1
#   39	001	00000	001		00011111100	011111100	                 1
#   40	000	00000	001		00011111100	011111100	                 1
#   41	001	00000	001		00011111100	011111100	                 1
#   42	000	00000	001		00011111100	011111100	                 1
#   43	001	00000	001		00011111100	011111100	                 1
#   44	000	00000	001		00011111100	011111100	                 1
#   45	001	00001	001		00011111100	011111100	                 1
#   46	000	00001	001		00011111100	011111100	                 1
#   47	001	00001	001		00011111100	011111100	                 1
#   48	000	00001	001		00011111100	011111100	                 1
#   49	001	00001	001		00011111100	011111100	                 1
#   50	000	00001	001		00011111100	011111100	                 1
#   51	001	00001	001		00011111100	011111100	                 1
#   52	000	00001	001		00011111100	011111100	                 1
#   53	001	00001	001		00011111100	011111100	                 1
#   54	000	00001	001		00011111100	011111100	                 1
#   55	001	00001	001		00011111100	011111100	                 1
#   56	000	00001	001		00011111100	011111100	                 1
#   57	001	00001	001		00011111100	011111100	                 1
#   58	000	00001	001		00011111100	011111100	                 1
#   59	001	00001	001		00011111100	011111100	                 1
#   60	000	00001	001		00011111100	011111100	                 1
#   61	001	00001	001		00011111100	011111100	                 1
#   62	000	00001	001		00011111100	011111100	                 1
#   63	001	00001	001		00011111100	011111100	                 1
#   64	000	00001	001		00011111100	011111100	                 1
#   65	001	00000	001		00011111100	011111100	                 1
#   66	000	00000	001		00011111100	011111100	                 1
#   67	001	00000	000		00011111100	011111100	                 1
#   68	000	00000	000		00011111100	011111100	                 1
#   69	001	00000	001		00011111100	011111100	                 1
#   70	000	00000	001		00011111100	011111100	                 1
#   71	001	00000	000		00011111100	011111100	                 1
#   72	000	00000	000		00011111100	011111100	                 1
#   73	001	00000	000		00011111100	011111100	                 1
#   74	000	00000	000		00011111100	011111100	                 1
#   75	001	00000	001		00011111100	011111100	                 1
#   76	000	00000	001		00011111100	011111100	                 1
#   77	001	00000	001		00011111100	011111100	                 1
#   78	000	00000	001		00011111100	011111100	                 1
#   79	001	00000	001		00011100101	011100101	                 1
#   80	000	00000	001		00011100101	011100101	                 1
# Passed / Total: 40 / 40
# Nota: 2.500
# End time: 00:46:05 on Nov 06,2023, Elapsed time: 0:00:04
# Errors: 0, Warnings: 0
